Generated by pymatgen.io.lammps.data.LammpsData

5  atoms

3  atom types

0.000000 3.912701  xlo xhi
0.000000 3.912701  ylo yhi
0.000000 3.912701  zlo zhi


Atoms

1  1 0.0000 0.000000 0.000000 0.000000
2  2 0.0000 1.956351 1.956351 1.956351
3  3 0.0000 1.956351 0.000000 1.956351
4  3 0.0000 1.956351 1.956351 0.000000
5  3 0.0000 0.000000 1.956351 1.956351

