Generated by pymatgen.io.lammps.data.LammpsData

20  atoms

 3  atom types

0.000000 5.522330  xlo xhi
0.000000 5.522330  ylo yhi
0.000000 7.845264  zlo zhi


Atoms

1   1 0.0000 0.000000 2.761165 1.961316
2   1 0.0000 2.761165 0.000000 1.961316
3   1 0.0000 2.761165 0.000000 5.883948
4   1 0.0000 0.000000 2.761165 5.883948
5   2 0.0000 2.761165 2.761165 3.922632
6   2 0.0000 0.000000 0.000000 3.922632
7   2 0.0000 0.000000 0.000000 0.000000
8   2 0.0000 2.761165 2.761165 0.000000
9   3 0.0000 4.257481 1.496316 3.922632
10  3 0.0000 4.026013 4.257481 3.922632
11  3 0.0000 1.496316 1.264848 3.922632
12  3 0.0000 1.264848 4.026013 3.922632
13  3 0.0000 2.761165 2.761165 1.961316
14  3 0.0000 0.000000 0.000000 1.961316
15  3 0.0000 1.496316 4.257481 0.000000
16  3 0.0000 1.264848 1.496316 0.000000
17  3 0.0000 4.257481 4.026013 0.000000
18  3 0.0000 4.026013 1.264848 0.000000
19  3 0.0000 0.000000 0.000000 5.883948
20  3 0.0000 2.761165 2.761165 5.883948
